3
Properties=species:S:1:pos:R:3:forces:R:3 TITLE=T energy=-10.007841551644212 pbc="F F F"
H        0.59826167      -0.34314107       0.38021025       0.00000018      -0.00000003       0.00000003
O       -0.17019225      -0.32247798      -0.19355645      -0.00000012       0.00000003       0.00000003
H       -0.88182843      -0.01439695       0.37110019      -0.00000006      -0.00000000      -0.00000006
